Test 100 2.2                                                            
SP        RPBEPBE                                                     def2TZVP            
Number of atoms                            I                2
Info1-9                                    I   N=           9
          12          11           0           0           0         110
           1          18         902
Full Title                                 C   N=           1
Test 100 2.2
Route                                      C   N=           4
#P pbepbe def2tzvp guess=read scf(fermi)        
Charge                                     I                0
Multiplicity                               I                1
Number of electrons                        I               48
Number of alpha electrons                  I               24
Number of beta electrons                   I               24
Number of basis functions                  I               90
Number of independent functions            I               90
Number of point charges in /Mol/           I                0
Number of translation vectors              I                0
Atomic numbers                             I   N=           2
          24          24
Nuclear charges                            R   N=           2
  2.40000000E+01  2.40000000E+01
Current cartesian coordinates              R   N=           6
  0.00000000E+00  0.00000000E+00  2.07869874E+00  2.54567175E-16  0.00000000E+00
 -2.07869874E+00
Number of symbols in /Mol/                 I                0
Int Atom Types                             I   N=           2
           0           0
Force Field                                I                0
Atom Types                                 C   N=           2
                        
MM charges                                 R   N=           2
  0.00000000E+00  0.00000000E+00
Integer atomic weights                     I   N=           2
          52          52
Real atomic weights                        R   N=           2
  5.19405097E+01  5.19405097E+01
Atom fragment info                         I   N=           2
           0           0
Atom residue num                           I   N=           2
           0           0
Nuclear spins                              I   N=           2
           0           0
Nuclear ZEff                               R   N=           2
 -2.47200000E+01 -2.47200000E+01
Nuclear ZNuc                               R   N=           2
  2.40000000E+01  2.40000000E+01
Nuclear QMom                               R   N=           2
  0.00000000E+00  0.00000000E+00
Nuclear GFac                               R   N=           2
  0.00000000E+00  0.00000000E+00
MicOpt                                     I   N=           2
          -1          -1
Number of residues                         I                0
Number of secondary structures             I                0
SymInf integers                            I   N=          26
           2           8           1           1           1          -1
           1          -1          -1          -1           1           1
          -1          -1          -1           1           1           1
          -1           1           1           1          -1          -1
          -1          -1
RotTr to input orientation                 R   N=          12
  0.00000000E+00  0.00000000E+00  1.00000000E+00  0.00000000E+00  1.00000000E+00
  0.00000000E+00 -1.00000000E+00  0.00000000E+00  0.00000000E+00  2.07869874E+00
  0.00000000E+00  0.00000000E+00
Number of contracted shells                I               30
Number of primitive shells                 I               72
Pure/Cartesian d shells                    I                0
Pure/Cartesian f shells                    I                0
Highest angular momentum                   I                3
Largest degree of contraction              I                8
Shell types                                I   N=          30
           0           0           0           0           0           0
           1           1           1           1          -2          -2
          -2          -2          -3           0           0           0
           0           0           0           1           1           1
           1          -2          -2          -2          -2          -3
Number of primitives per shell             I   N=          30
           8           4           2           1           1           1
           6           3           1           1           4           1
           1           1           1           8           4           2
           1           1           1           6           3           1
           1           4           1           1           1           1
Shell to atom map                          I   N=          30
           1           1           1           1           1           1
           1           1           1           1           1           1
           1           1           1           2           2           2
           2           2           2           2           2           2
           2           2           2           2           2           2
Primitive exponents                        R   N=          72
  2.54477807E+05  3.81317971E+04  8.67529306E+03  2.45500998E+03  7.99162178E+02
  2.86900215E+02  1.11254132E+02  4.38641526E+01  2.79326692E+02  8.62747324E+01
  1.35557561E+01  5.69781128E+00  8.56365826E+00  1.39882968E+00  5.72881711E-01
  9.00961713E-02  3.41258851E-02  1.30643989E+03  3.09253114E+02  9.89962740E+01
  3.67569165E+01  1.45666571E+01  5.87399374E+00  2.28909997E+01  3.08550018E+00
  1.21323291E+00  4.49316807E-01  1.20675000E-01  4.37200745E+01  1.23912427E+01
  4.26394420E+00  1.55252218E+00  5.37619295E-01  1.64931731E-01  5.10000000E-02
  1.14700000E+00  2.54477807E+05  3.81317971E+04  8.67529306E+03  2.45500998E+03
  7.99162178E+02  2.86900215E+02  1.11254132E+02  4.38641526E+01  2.79326692E+02
  8.62747324E+01  1.35557561E+01  5.69781128E+00  8.56365826E+00  1.39882968E+00
  5.72881711E-01  9.00961713E-02  3.41258851E-02  1.30643989E+03  3.09253114E+02
  9.89962740E+01  3.67569165E+01  1.45666571E+01  5.87399374E+00  2.28909997E+01
  3.08550018E+00  1.21323291E+00  4.49316807E-01  1.20675000E-01  4.37200745E+01
  1.23912427E+01  4.26394420E+00  1.55252218E+00  5.37619295E-01  1.64931731E-01
  5.10000000E-02  1.14700000E+00
Contraction coefficients                   R   N=          72
  2.42904776E-04  1.88435236E-03  9.80095844E-03  3.98250087E-02  1.29405437E-01
  3.06290018E-01  4.34628350E-01  2.24695629E-01 -2.43633579E-02 -1.15114954E-01
  5.50922663E-01  5.36113547E-01 -3.71230177E-01  1.16811695E+00  1.00000000E+00
  1.00000000E+00  1.00000000E+00  2.82928007E-03  2.27766292E-02  1.05645619E-01
  2.99499449E-01  4.77062454E-01  2.76542344E-01 -1.94121061E-02  3.86188758E-01
  6.76239089E-01  1.00000000E+00  1.00000000E+00  2.20932593E-02  1.28014388E-01
  3.86529103E-01  6.41033014E-01  1.00000000E+00  1.00000000E+00  1.00000000E+00
  1.00000000E+00  2.42904776E-04  1.88435236E-03  9.80095844E-03  3.98250087E-02
  1.29405437E-01  3.06290018E-01  4.34628350E-01  2.24695629E-01 -2.43633579E-02
 -1.15114954E-01  5.50922663E-01  5.36113547E-01 -3.71230177E-01  1.16811695E+00
  1.00000000E+00  1.00000000E+00  1.00000000E+00  2.82928007E-03  2.27766292E-02
  1.05645619E-01  2.99499449E-01  4.77062454E-01  2.76542344E-01 -1.94121061E-02
  3.86188758E-01  6.76239089E-01  1.00000000E+00  1.00000000E+00  2.20932593E-02
  1.28014388E-01  3.86529103E-01  6.41033014E-01  1.00000000E+00  1.00000000E+00
  1.00000000E+00  1.00000000E+00
Coordinates of each shell                  R   N=          90
  0.00000000E+00  0.00000000E+00  2.07869874E+00  0.00000000E+00  0.00000000E+00
  2.07869874E+00  0.00000000E+00  0.00000000E+00  2.07869874E+00  0.00000000E+00
  0.00000000E+00  2.07869874E+00  0.00000000E+00  0.00000000E+00  2.07869874E+00
  0.00000000E+00  0.00000000E+00  2.07869874E+00  0.00000000E+00  0.00000000E+00
  2.07869874E+00  0.00000000E+00  0.00000000E+00  2.07869874E+00  0.00000000E+00
  0.00000000E+00  2.07869874E+00  0.00000000E+00  0.00000000E+00  2.07869874E+00
  0.00000000E+00  0.00000000E+00  2.07869874E+00  0.00000000E+00  0.00000000E+00
  2.07869874E+00  0.00000000E+00  0.00000000E+00  2.07869874E+00  0.00000000E+00
  0.00000000E+00  2.07869874E+00  0.00000000E+00  0.00000000E+00  2.07869874E+00
  2.54567175E-16  0.00000000E+00 -2.07869874E+00  2.54567175E-16  0.00000000E+00
 -2.07869874E+00  2.54567175E-16  0.00000000E+00 -2.07869874E+00  2.54567175E-16
  0.00000000E+00 -2.07869874E+00  2.54567175E-16  0.00000000E+00 -2.07869874E+00
  2.54567175E-16  0.00000000E+00 -2.07869874E+00  2.54567175E-16  0.00000000E+00
 -2.07869874E+00  2.54567175E-16  0.00000000E+00 -2.07869874E+00  2.54567175E-16
  0.00000000E+00 -2.07869874E+00  2.54567175E-16  0.00000000E+00 -2.07869874E+00
  2.54567175E-16  0.00000000E+00 -2.07869874E+00  2.54567175E-16  0.00000000E+00
 -2.07869874E+00  2.54567175E-16  0.00000000E+00 -2.07869874E+00  2.54567175E-16
  0.00000000E+00 -2.07869874E+00  2.54567175E-16  0.00000000E+00 -2.07869874E+00
Num ILSW                                   I              100
ILSW                                       I   N=         100
           0           0           0           0           2           0
           0           0           0           0        1009          -1
           5           0           0           0           0           0
           0           0           0           0           0           0
           1           0           0           0           0           0
           0           0      100000           0          -1           0
           0           0           0           0           0           0
           0           0           0           1           0           0
           0 -2000000000           1           0           0           0
           0           0           4          52           0           0
           0           0           0           0           0           0
           0           0           0           2           0           1
           0           0           0           0           0           0
           0           0           0           0           0           0
           0           0           0           0           0           0
           0           0           0           0           0           0
           0           0           0           0
Num RLSW                                   I               52
RLSW                                       R   N=          52
  1.00000000E+00  1.00000000E+00  1.00000000E+00  1.00000000E+00  0.00000000E+00
  0.00000000E+00  0.00000000E+00  1.00000000E+00  0.00000000E+00  0.00000000E+00
  0.00000000E+00  0.00000000E+00  1.00000000E+00  0.00000000E+00  0.00000000E+00
  0.00000000E+00  0.00000000E+00  1.00000000E+00  0.00000000E+00  0.00000000E+00
  0.00000000E+00  0.00000000E+00  1.00000000E+00  0.00000000E+00  0.00000000E+00
  0.00000000E+00  0.00000000E+00  1.00000000E+00  0.00000000E+00  0.00000000E+00
  0.00000000E+00  0.00000000E+00  1.00000000E+00  0.00000000E+00  0.00000000E+00
  0.00000000E+00  0.00000000E+00  0.00000000E+00  1.00000000E+00  1.00000000E+00
  0.00000000E+00  1.00000000E+00  0.00000000E+00  0.00000000E+00  0.00000000E+00
  0.00000000E+00  0.00000000E+00  0.00000000E+00  0.00000000E+00  0.00000000E+00
  0.00000000E+00  0.00000000E+00
ECP-MxAtEC                                 I           250000
ECP-MaxLECP                                I               10
ECP-MaxAtL                                 I          2250000
ECP-MxTECP                                 I         11250000
ECP-LenNCZ                                 I                0
ECP-KFirst                                 I   N=          20
           0           0           0           0           0           0
           0           0           0           0           0           0
           0           0           0           0           0           0
           0           0
ECP-KLast                                  I   N=          20
           0           0           0           0           0           0
           0           0           0           0           0           0
           0           0           0           0           0           0
           0           0
ECP-LMax                                   I   N=           2
           0           0
ECP-LPSkip                                 I   N=           2
           1           1
ECP-RNFroz                                 R   N=           2
  0.00000000E+00  0.00000000E+00
ECP-NLP                                    I                0
ECP-CLP1                                   R      0.000000000000000E+00
ECP-CLP2                                   R      0.000000000000000E+00
ECP-ZLP                                    R      0.000000000000000E+00
MxBond                                     I                1
NBond                                      I   N=           2
           1           1
IBond                                      I   N=           2
           2           1
RBond                                      R   N=           2
  2.00000000E+00  2.00000000E+00
Virial Ratio                               R      2.001745318972435E+00
SCF Energy                                 R     -2.088297629272034E+03
Total Energy                               R     -2.088297629272034E+03
RMS Density                                R      3.062952530001892E-09
Job Status                                 I                1
Nuclear derivative order                   I                0
External E-field                           R   N=          35
  0.00000000E+00  0.00000000E+00  0.00000000E+00  0.00000000E+00  0.00000000E+00
  0.00000000E+00  0.00000000E+00  0.00000000E+00  0.00000000E+00  0.00000000E+00
  0.00000000E+00  0.00000000E+00  0.00000000E+00  0.00000000E+00  0.00000000E+00
  0.00000000E+00  0.00000000E+00  0.00000000E+00  0.00000000E+00  0.00000000E+00
  0.00000000E+00  0.00000000E+00  0.00000000E+00  0.00000000E+00  0.00000000E+00
  0.00000000E+00  0.00000000E+00  0.00000000E+00  0.00000000E+00  0.00000000E+00
  0.00000000E+00  0.00000000E+00  0.00000000E+00  0.00000000E+00  0.00000000E+00
IOpCl                                      I                0
IROHF                                      I                0
Alpha Orbital Energies                     R   N=          90
 -2.14454702E+02 -2.14454700E+02 -2.42242265E+01 -2.42242086E+01 -2.05955946E+01
 -2.05955511E+01 -2.05929992E+01 -2.05929992E+01 -2.05929809E+01 -2.05929809E+01
 -2.68613380E+00 -2.68042234E+00 -1.69233999E+00 -1.67461253E+00 -1.67461253E+00
 -1.67089628E+00 -1.67089628E+00 -1.66285182E+00 -1.81596308E-01 -1.57610128E-01
 -1.57610128E-01 -1.51606963E-01 -1.26119571E-01 -1.26119512E-01 -1.04274523E-01
 -1.04274440E-01 -1.01354794E-01 -9.07212684E-02 -9.07212684E-02 -8.32802316E-02
 -1.16663409E-02 -5.69544729E-03 -5.69544729E-03  3.45587527E-02  3.45587527E-02
  6.61070112E-02  8.17656726E-02  8.17656842E-02  8.48761543E-02  1.26468731E-01
  1.30437929E-01  1.30437931E-01  1.31316716E-01  1.31316716E-01  1.56419606E-01
  2.24231962E-01  2.24231962E-01  4.04024193E-01  4.48334578E-01  4.48334653E-01
  4.72983784E-01  4.72983784E-01  5.30071141E-01  5.30071205E-01  5.45788736E-01
  5.65755104E-01  5.65755104E-01  7.67137367E-01  1.26302691E+00  1.26302691E+00
  1.26643974E+00  1.40432257E+00  1.40432257E+00  1.47456478E+00  1.83654866E+00
  1.97824610E+00  1.97824610E+00  1.99409870E+00  2.00579741E+00  2.00579862E+00
  2.01990985E+00  2.03703696E+00  2.03703818E+00  2.08017035E+00  2.08017035E+00
  2.38933527E+00  2.86569093E+00  2.86569093E+00  2.89961877E+00  2.89961925E+00
  2.90591451E+00  2.90591451E+00  2.90688689E+00  2.90688689E+00  2.91653644E+00
  2.91653697E+00  2.92911213E+00  2.99163987E+00  2.99163987E+00  3.21110589E+00
Alpha MO coefficients                      R   N=        8100
  7.05568914E-01  4.82047816E-03 -2.01267333E-03  1.51527571E-03 -2.11921281E-03
  3.43722151E-04  0.00000000E+00  0.00000000E+00 -4.84331453E-06  0.00000000E+00
  0.00000000E+00  2.42160744E-05  0.00000000E+00  0.00000000E+00 -7.90729840E-05
  0.00000000E+00  0.00000000E+00  1.32627978E-03 -1.12970651E-05  0.00000000E+00
  0.00000000E+00 -4.03633552E-16  0.00000000E+00  3.31278009E-05  0.00000000E+00
  0.00000000E+00  7.14773467E-16  0.00000000E+00 -4.40235643E-04  0.00000000E+00
  0.00000000E+00 -3.86538377E-16  0.00000000E+00 -1.00474458E-04  0.00000000E+00
  0.00000000E+00  1.98504054E-16  0.00000000E+00  1.04911643E-05  0.00000000E+00
  0.00000000E+00  5.49265943E-17  0.00000000E+00  0.00000000E+00  0.00000000E+00
 -7.05568914E-01 -4.82047816E-03  2.01267333E-03 -1.51527571E-03  2.11921281E-03
 -3.43722151E-04  0.00000000E+00  0.00000000E+00 -4.84331453E-06  0.00000000E+00
  0.00000000E+00  2.42160744E-05  0.00000000E+00  0.00000000E+00 -7.90729840E-05
  0.00000000E+00  0.00000000E+00  1.32627978E-03  1.12970651E-05  0.00000000E+00
  0.00000000E+00  4.03633552E-16  0.00000000E+00 -3.31278009E-05  0.00000000E+00
  0.00000000E+00 -7.14773467E-16  0.00000000E+00  4.40235643E-04  0.00000000E+00
  0.00000000E+00  3.86538377E-16  0.00000000E+00  1.00474458E-04  0.00000000E+00
  0.00000000E+00 -1.98504054E-16  0.00000000E+00  1.04911643E-05  0.00000000E+00
  0.00000000E+00  5.49265943E-17  0.00000000E+00  0.00000000E+00  0.00000000E+00
  7.05570585E-01  4.82682773E-03 -1.97724161E-03  1.38682089E-03 -3.65430323E-04
  1.45675584E-04  0.00000000E+00  0.00000000E+00 -1.46969445E-06  0.00000000E+00
  0.00000000E+00  1.21626975E-05  0.00000000E+00  0.00000000E+00 -6.43518067E-05
  0.00000000E+00  0.00000000E+00  2.94064642E-05 -4.91300602E-06  0.00000000E+00
  0.00000000E+00 -1.12619051E-15  0.00000000E+00  4.14762307E-05  0.00000000E+00
  0.00000000E+00  1.21459139E-15  0.00000000E+00 -1.14588368E-04  0.00000000E+00
  0.00000000E+00 -8.01972736E-16  0.00000000E+00  3.34365741E-05  0.00000000E+00
  0.00000000E+00  2.92451939E-16  0.00000000E+00  1.08182400E-05  0.00000000E+00
  0.00000000E+00 -6.80467618E-17  0.00000000E+00  0.00000000E+00  0.00000000E+00
  7.05570585E-01  4.82682773E-03 -1.97724161E-03  1.38682089E-03 -3.65430323E-04
  1.45675584E-04  0.00000000E+00  0.00000000E+00  1.46969445E-06  0.00000000E+00
  0.00000000E+00 -1.21626975E-05  0.00000000E+00  0.00000000E+00  6.43518067E-05
  0.00000000E+00  0.00000000E+00 -2.94064642E-05 -4.91300602E-06  0.00000000E+00
  0.00000000E+00 -1.12619051E-15  0.00000000E+00  4.14762307E-05  0.00000000E+00
  0.00000000E+00  1.21459139E-15  0.00000000E+00 -1.14588368E-04  0.00000000E+00
  0.00000000E+00 -8.01972736E-16  0.00000000E+00  3.34365741E-05  0.00000000E+00
  0.00000000E+00  2.92451939E-16  0.00000000E+00 -1.08182400E-05  0.00000000E+00
  0.00000000E+00  6.80467618E-17  0.00000000E+00  0.00000000E+00  0.00000000E+00
 -2.19501458E-01  7.31970446E-01  3.44353807E-02 -1.53371579E-02  1.74682109E-02
 -2.91973337E-03  0.00000000E+00  0.00000000E+00 -1.05732010E-03  0.00000000E+00
  0.00000000E+00 -3.31187405E-04  0.00000000E+00  0.00000000E+00  7.31902587E-04
  0.00000000E+00  0.00000000E+00 -1.07620484E-02  1.55636102E-04  0.00000000E+00
  0.00000000E+00  3.65713635E-17  0.00000000E+00 -3.23119939E-04  0.00000000E+00
  0.00000000E+00 -1.92934166E-16  0.00000000E+00  3.54398224E-03  0.00000000E+00
  0.00000000E+00 -4.30196793E-17  0.00000000E+00  8.42018527E-04  0.00000000E+00
  0.00000000E+00  2.74227719E-18  0.00000000E+00 -6.42895325E-05  0.00000000E+00
  0.00000000E+00  4.33822709E-17  0.00000000E+00  0.00000000E+00  0.00000000E+00
  2.19501458E-01 -7.31970446E-01 -3.44353807E-02  1.53371579E-02 -1.74682109E-02
  2.91973337E-03  0.00000000E+00  0.00000000E+00 -1.05732010E-03  0.00000000E+00
  0.00000000E+00 -3.31187405E-04  0.00000000E+00  0.00000000E+00  7.31902587E-04
  0.00000000E+00  0.00000000E+00 -1.07620484E-02 -1.55636102E-04  0.00000000E+00
  0.00000000E+00 -3.65713635E-17  0.00000000E+00  3.23119939E-04  0.00000000E+00
  0.00000000E+00  1.92934166E-16  0.00000000E+00 -3.54398224E-03  0.00000000E+00
  0.00000000E+00  4.30196793E-17  0.00000000E+00 -8.42018527E-04  0.00000000E+00
  0.00000000E+00 -2.74227719E-18  0.00000000E+00 -6.42895325E-05  0.00000000E+00
  0.00000000E+00  4.33822709E-17  0.00000000E+00  0.00000000E+00  0.00000000E+00
 -2.19514746E-01  7.31922292E-01  3.41579656E-02 -1.43388890E-02  3.22966699E-03
 -1.27320530E-03  0.00000000E+00  0.00000000E+00 -1.08630053E-03  0.00000000E+00
  0.00000000E+00 -2.05233571E-04  0.00000000E+00  0.00000000E+00  5.85745750E-04
  0.00000000E+00  0.00000000E+00 -2.63565544E-04  8.72919685E-05  0.00000000E+00
  0.00000000E+00 -2.44342640E-16  0.00000000E+00 -3.50382544E-04  0.00000000E+00
  0.00000000E+00 -2.30171623E-16  0.00000000E+00  9.73648607E-04  0.00000000E+00
  0.00000000E+00  9.62698416E-18  0.00000000E+00 -2.79158005E-04  0.00000000E+00
  0.00000000E+00 -2.27081930E-17  0.00000000E+00 -8.96697564E-05  0.00000000E+00
  0.00000000E+00 -2.15139313E-16  0.00000000E+00  0.00000000E+00  0.00000000E+00
 -2.19514746E-01  7.31922292E-01  3.41579656E-02 -1.43388890E-02  3.22966699E-03
 -1.27320530E-03  0.00000000E+00  0.00000000E+00  1.08630053E-03  0.00000000E+00
  0.00000000E+00  2.05233571E-04  0.00000000E+00  0.00000000E+00 -5.85745750E-04
  0.00000000E+00  0.00000000E+00  2.63565544E-04  8.72919685E-05  0.00000000E+00
  0.00000000E+00 -2.44342640E-16  0.00000000E+00 -3.50382544E-04  0.00000000E+00
  0.00000000E+00 -2.30171623E-16  0.00000000E+00  9.73648607E-04  0.00000000E+00
  0.00000000E+00  9.62698416E-18  0.00000000E+00 -2.79158005E-04  0.00000000E+00
  0.00000000E+00 -2.27081930E-17  0.00000000E+00  8.96697564E-05  0.00000000E+00
  0.00000000E+00  2.15139313E-16  0.00000000E+00  0.00000000E+00  0.00000000E+00
 -3.78796832E-04  1.15311409E-03 -3.45728806E-04  6.24796467E-04 -5.03310851E-03
 -1.03851558E-03  0.00000000E+00  0.00000000E+00  7.00224521E-01  0.00000000E+00
  0.00000000E+00  1.96106699E-02  0.00000000E+00  0.00000000E+00 -6.43524926E-03
  0.00000000E+00  0.00000000E+00  5.99746977E-03 -3.21268802E-04  0.00000000E+00
  0.00000000E+00  3.47709328E-17  0.00000000E+00  5.96251039E-04  0.00000000E+00
  0.00000000E+00 -6.51003307E-17  0.00000000E+00 -1.11579888E-03  0.00000000E+00
  0.00000000E+00 -1.41927598E-16  0.00000000E+00 -4.97579463E-04  0.00000000E+00
  0.00000000E+00  1.53671839E-16  0.00000000E+00 -1.36789235E-04  0.00000000E+00
  0.00000000E+00  4.97404462E-17  0.00000000E+00  0.00000000E+00  0.00000000E+00
  3.78796832E-04 -1.15311409E-03  3.45728806E-04 -6.24796467E-04  5.03310851E-03
  1.03851558E-03  0.00000000E+00  0.00000000E+00  7.00224521E-01  0.00000000E+00
  0.00000000E+00  1.96106699E-02  0.00000000E+00  0.00000000E+00 -6.43524926E-03
  0.00000000E+00  0.00000000E+00  5.99746977E-03  3.21268802E-04  0.00000000E+00
  0.00000000E+00 -3.47709328E-17  0.00000000E+00 -5.96251039E-04  0.00000000E+00
  0.00000000E+00  6.51003307E-17  0.00000000E+00  1.11579888E-03  0.00000000E+00
  0.00000000E+00  1.41927598E-16  0.00000000E+00  4.97579463E-04  0.00000000E+00
  0.00000000E+00 -1.53671839E-16  0.00000000E+00 -1.36789235E-04  0.00000000E+00
  0.00000000E+00  4.97404462E-17  0.00000000E+00  0.00000000E+00  0.00000000E+00
 -3.66646916E-04  1.14940510E-03 -1.80583197E-04  4.94333698E-04  1.09710387E-03
 -6.77779083E-04  0.00000000E+00  0.00000000E+00  7.00309222E-01  0.00000000E+00
  0.00000000E+00  1.92278470E-02  0.00000000E+00  0.00000000E+00 -5.98924511E-03
  0.00000000E+00  0.00000000E+00  2.21569996E-03 -7.86839549E-05  0.00000000E+00
  0.00000000E+00  7.33224404E-16  0.00000000E+00  2.34435469E-05  0.00000000E+00
  0.00000000E+00  1.09587135E-16  0.00000000E+00 -6.03240514E-04  0.00000000E+00
  0.00000000E+00  1.60864497E-16  0.00000000E+00 -4.68480081E-04  0.00000000E+00
  0.00000000E+00 -4.76981182E-16  0.00000000E+00  1.58899785E-04  0.00000000E+00
  0.00000000E+00  6.40475321E-17  0.00000000E+00  0.00000000E+00  0.00000000E+00
 -3.66646916E-04  1.14940510E-03 -1.80583197E-04  4.94333698E-04  1.09710387E-03
 -6.77779083E-04  0.00000000E+00  0.00000000E+00 -7.00309222E-01  0.00000000E+00
  0.00000000E+00 -1.92278470E-02  0.00000000E+00  0.00000000E+00  5.98924511E-03
  0.00000000E+00  0.00000000E+00 -2.21569996E-03 -7.86839549E-05  0.00000000E+00
  0.00000000E+00  7.33224404E-16  0.00000000E+00  2.34435469E-05  0.00000000E+00
  0.00000000E+00  1.09587135E-16  0.00000000E+00 -6.03240514E-04  0.00000000E+00
  0.00000000E+00  1.60864497E-16  0.00000000E+00 -4.68480081E-04  0.00000000E+00
  0.00000000E+00 -4.76981182E-16  0.00000000E+00 -1.58899785E-04  0.00000000E+00
  0.00000000E+00 -6.40475321E-17  0.00000000E+00  0.00000000E+00  0.00000000E+00
  0.00000000E+00  0.00000000E+00  0.00000000E+00  0.00000000E+00  0.00000000E+00
  0.00000000E+00  0.00000000E+00  7.00298608E-01  0.00000000E+00  0.00000000E+00
  1.92923728E-02  0.00000000E+00  0.00000000E+00 -5.93862965E-03  0.00000000E+00
  0.00000000E+00  2.83058781E-03  0.00000000E+00  0.00000000E+00  0.00000000E+00
 -1.35448150E-04  0.00000000E+00  0.00000000E+00  0.00000000E+00  0.00000000E+00
  1.09971281E-04  0.00000000E+00  0.00000000E+00  0.00000000E+00  0.00000000E+00
 -2.86182596E-04  0.00000000E+00  0.00000000E+00  0.00000000E+00  0.00000000E+00
 -7.21542173E-04  0.00000000E+00  0.00000000E+00  0.00000000E+00  0.00000000E+00
  2.89591192E-06  0.00000000E+00  0.00000000E+00  0.00000000E+00  1.35033121E-10
  0.00000000E+00  0.00000000E+00  0.00000000E+00  0.00000000E+00  0.00000000E+00
  0.00000000E+00  0.00000000E+00 -7.00298608E-01  0.00000000E+00  0.00000000E+00
 -1.92923728E-02  0.00000000E+00  0.00000000E+00  5.93862965E-03  0.00000000E+00
  0.00000000E+00 -2.83058781E-03  0.00000000E+00  0.00000000E+00  0.00000000E+00
 -1.35448150E-04  0.00000000E+00  0.00000000E+00  0.00000000E+00  0.00000000E+00
  1.09971281E-04  0.00000000E+00  0.00000000E+00  0.00000000E+00  0.00000000E+00
 -2.86182596E-04  0.00000000E+00  0.00000000E+00  0.00000000E+00  0.00000000E+00
 -7.21542173E-04  0.00000000E+00  0.00000000E+00  0.00000000E+00  0.00000000E+00
 -2.89591192E-06  0.00000000E+00  0.00000000E+00  0.00000000E+00 -1.35033121E-10
  0.00000000E+00  0.00000000E+00  0.00000000E+00  0.00000000E+00  0.00000000E+00
  0.00000000E+00  7.00298608E-01  0.00000000E+00  0.00000000E+00  1.92923728E-02
  0.00000000E+00  0.00000000E+00 -5.93862965E-03  0.00000000E+00  0.00000000E+00
  2.83058781E-03  0.00000000E+00  0.00000000E+00  0.00000000E+00 -1.35448150E-04
  0.00000000E+00  0.00000000E+00  0.00000000E+00  0.00000000E+00  1.09971281E-04
  0.00000000E+00  0.00000000E+00  0.00000000E+00  0.00000000E+00 -2.86182596E-04
  0.00000000E+00  0.00000000E+00  0.00000000E+00  0.00000000E+00 -7.21542173E-04
  0.00000000E+00  0.00000000E+00  0.00000000E+00  0.00000000E+00  2.89591192E-06
  0.00000000E+00  0.00000000E+00  0.00000000E+00 -1.35033604E-10  0.00000000E+00
  0.00000000E+00  0.00000000E+00  0.00000000E+00  0.00000000E+00  0.00000000E+00
  0.00000000E+00 -7.00298608E-01  0.00000000E+00  0.00000000E+00 -1.92923728E-02
  0.00000000E+00  0.00000000E+00  5.93862965E-03  0.00000000E+00  0.00000000E+00
 -2.83058781E-03  0.00000000E+00  0.00000000E+00  0.00000000E+00 -1.35448150E-04
  0.00000000E+00  0.00000000E+00  0.00000000E+00  0.00000000E+00  1.09971281E-04
  0.00000000E+00  0.00000000E+00  0.00000000E+00  0.00000000E+00 -2.86182596E-04
  0.00000000E+00  0.00000000E+00  0.00000000E+00  0.00000000E+00 -7.21542173E-04
  0.00000000E+00  0.00000000E+00  0.00000000E+00  0.00000000E+00 -2.89591192E-06
  0.00000000E+00  0.00000000E+00  0.00000000E+00  1.35033604E-10  0.00000000E+00
  0.00000000E+00  0.00000000E+00  0.00000000E+00  0.00000000E+00  0.00000000E+00
  0.00000000E+00  7.00334773E-01  0.00000000E+00  0.00000000E+00  1.91204580E-02
  0.00000000E+00  0.00000000E+00 -5.50521374E-03  0.00000000E+00  0.00000000E+00
  1.44583796E-03  0.00000000E+00  0.00000000E+00  0.00000000E+00 -1.33157704E-04
  0.00000000E+00  0.00000000E+00  0.00000000E+00  0.00000000E+00  1.75224075E-04
  0.00000000E+00  0.00000000E+00  0.00000000E+00  0.00000000E+00 -2.69817949E-04
  0.00000000E+00  0.00000000E+00  0.00000000E+00  0.00000000E+00  3.79592594E-04
  0.00000000E+00  0.00000000E+00  0.00000000E+00  0.00000000E+00  2.19011474E-05
  0.00000000E+00  0.00000000E+00  0.00000000E+00 -1.37094454E-10  0.00000000E+00
  0.00000000E+00  0.00000000E+00  0.00000000E+00  0.00000000E+00  0.00000000E+00
  0.00000000E+00  7.00334773E-01  0.00000000E+00  0.00000000E+00  1.91204580E-02
  0.00000000E+00  0.00000000E+00 -5.50521374E-03  0.00000000E+00  0.00000000E+00
  1.44583796E-03  0.00000000E+00  0.00000000E+00  0.00000000E+00  1.33157704E-04
  0.00000000E+00  0.00000000E+00  0.00000000E+00  0.00000000E+00 -1.75224075E-04
  0.00000000E+00  0.00000000E+00  0.00000000E+00  0.00000000E+00  2.69817949E-04
  0.00000000E+00  0.00000000E+00  0.00000000E+00  0.00000000E+00 -3.79592594E-04
  0.00000000E+00  0.00000000E+00  0.00000000E+00  0.00000000E+00  2.19011474E-05
  0.00000000E+00  0.00000000E+00  0.00000000E+00 -1.37094454E-10  0.00000000E+00
  0.00000000E+00  0.00000000E+00  0.00000000E+00  0.00000000E+00  0.00000000E+00
  0.00000000E+00  0.00000000E+00  7.00334773E-01  0.00000000E+00  0.00000000E+00
  1.91204580E-02  0.00000000E+00  0.00000000E+00 -5.50521374E-03  0.00000000E+00
  0.00000000E+00  1.44583796E-03  0.00000000E+00  0.00000000E+00  0.00000000E+00
 -1.33157704E-04  0.00000000E+00  0.00000000E+00  0.00000000E+00  0.00000000E+00
  1.75224075E-04  0.00000000E+00  0.00000000E+00  0.00000000E+00  0.00000000E+00
 -2.69817949E-04  0.00000000E+00  0.00000000E+00  0.00000000E+00  0.00000000E+00
  3.79592594E-04  0.00000000E+00  0.00000000E+00  0.00000000E+00  0.00000000E+00
  2.19011474E-05  0.00000000E+00  0.00000000E+00  0.00000000E+00  1.37094604E-10
  0.00000000E+00  0.00000000E+00  0.00000000E+00  0.00000000E+00  0.00000000E+00