Test 100 1.6                                                            
SP        ROPBEPBE                                                    def2TZVP            
Number of atoms                            I                1
Info1-9                                    I   N=           9
          11          10           0           0           0         110
           1          18         902
Full Title                                 C   N=           1
Test 100 1.6
Route                                      C   N=           3
#P ropbepbe def2tzvp scf(fermi)     
Charge                                     I                0
Multiplicity                               I                7
Number of electrons                        I               24
Number of alpha electrons                  I               15
Number of beta electrons                   I                9
Number of basis functions                  I               45
Number of independent functions            I               45
Number of point charges in /Mol/           I                0
Number of translation vectors              I                0
Atomic numbers                             I   N=           1
          24
Nuclear charges                            R   N=           1
  2.40000000E+01
Current cartesian coordinates              R   N=           3
  0.00000000E+00  0.00000000E+00  0.00000000E+00
Number of symbols in /Mol/                 I                0
Int Atom Types                             I   N=           1
           0
Force Field                                I                0
Atom Types                                 C   N=           1
            
MM charges                                 R   N=           1
  0.00000000E+00
Integer atomic weights                     I   N=           1
          52
Real atomic weights                        R   N=           1
  5.19405097E+01
Atom fragment info                         I   N=           1
           0
Atom residue num                           I   N=           1
           0
Nuclear spins                              I   N=           1
           0
Nuclear ZEff                               R   N=           1
 -2.47200000E+01
Nuclear ZNuc                               R   N=           1
  2.40000000E+01
Nuclear QMom                               R   N=           1
  0.00000000E+00
Nuclear GFac                               R   N=           1
  0.00000000E+00
MicOpt                                     I   N=           1
          -1
Number of residues                         I                0
Number of secondary structures             I                0
SymInf integers                            I   N=          26
           1           8           1           1           1           1
          -1          -1          -1           1          -1          -1
          -1           1          -1          -1          -1          -1
           1           1           1          -1           1           1
           1          -1
RotTr to input orientation                 R   N=          12
  0.00000000E+00  0.00000000E+00 -1.00000000E+00  0.00000000E+00  1.00000000E+00
  0.00000000E+00  1.00000000E+00  0.00000000E+00  0.00000000E+00  0.00000000E+00
  0.00000000E+00  0.00000000E+00
Number of contracted shells                I               15
Number of primitive shells                 I               36
Pure/Cartesian d shells                    I                0
Pure/Cartesian f shells                    I                0
Highest angular momentum                   I                3
Largest degree of contraction              I                8
Shell types                                I   N=          15
           0           0           0           0           0           0
           1           1           1           1          -2          -2
          -2          -2          -3
Number of primitives per shell             I   N=          15
           8           4           2           1           1           1
           6           3           1           1           4           1
           1           1           1
Shell to atom map                          I   N=          15
           1           1           1           1           1           1
           1           1           1           1           1           1
           1           1           1
Primitive exponents                        R   N=          36
  2.54477807E+05  3.81317971E+04  8.67529306E+03  2.45500998E+03  7.99162178E+02
  2.86900215E+02  1.11254132E+02  4.38641526E+01  2.79326692E+02  8.62747324E+01
  1.35557561E+01  5.69781128E+00  8.56365826E+00  1.39882968E+00  5.72881711E-01
  9.00961713E-02  3.41258851E-02  1.30643989E+03  3.09253114E+02  9.89962740E+01
  3.67569165E+01  1.45666571E+01  5.87399374E+00  2.28909997E+01  3.08550018E+00
  1.21323291E+00  4.49316807E-01  1.20675000E-01  4.37200745E+01  1.23912427E+01
  4.26394420E+00  1.55252218E+00  5.37619295E-01  1.64931731E-01  5.10000000E-02
  1.14700000E+00
Contraction coefficients                   R   N=          36
  2.42904776E-04  1.88435236E-03  9.80095844E-03  3.98250087E-02  1.29405437E-01
  3.06290018E-01  4.34628350E-01  2.24695629E-01 -2.43633579E-02 -1.15114954E-01
  5.50922663E-01  5.36113547E-01 -3.71230177E-01  1.16811695E+00  1.00000000E+00
  1.00000000E+00  1.00000000E+00  2.82928007E-03  2.27766292E-02  1.05645619E-01
  2.99499449E-01  4.77062454E-01  2.76542344E-01 -1.94121061E-02  3.86188758E-01
  6.76239089E-01  1.00000000E+00  1.00000000E+00  2.20932593E-02  1.28014388E-01
  3.86529103E-01  6.41033014E-01  1.00000000E+00  1.00000000E+00  1.00000000E+00
  1.00000000E+00
Coordinates of each shell                  R   N=          45
  0.00000000E+00  0.00000000E+00  0.00000000E+00  0.00000000E+00  0.00000000E+00
  0.00000000E+00  0.00000000E+00  0.00000000E+00  0.00000000E+00  0.00000000E+00
  0.00000000E+00  0.00000000E+00  0.00000000E+00  0.00000000E+00  0.00000000E+00
  0.00000000E+00  0.00000000E+00  0.00000000E+00  0.00000000E+00  0.00000000E+00
  0.00000000E+00  0.00000000E+00  0.00000000E+00  0.00000000E+00  0.00000000E+00
  0.00000000E+00  0.00000000E+00  0.00000000E+00  0.00000000E+00  0.00000000E+00
  0.00000000E+00  0.00000000E+00  0.00000000E+00  0.00000000E+00  0.00000000E+00
  0.00000000E+00  0.00000000E+00  0.00000000E+00  0.00000000E+00  0.00000000E+00
  0.00000000E+00  0.00000000E+00  0.00000000E+00  0.00000000E+00  0.00000000E+00
Num ILSW                                   I              100
ILSW                                       I   N=         100
           0           0           0           0           2           0
           0           0           0           0        1009          -1
           5           0           0           0           0           0
           0           0           0           1           0           0
           1           0           0           0           0           0
           0           0      100000           0          -1           0
           0           0           0           0           0           0
           0           0           0           1           0           0
           0 -2000000000           1           0           0           0
           0           0           4          52           0           0
           0           0           0           0           0           0
           0           0           0           1           0           1
           0           0           0           0           0           0
           0           0           0           0           0           0
           0           0           0           0           0           0
           0           0           0           0           0           0
           0           0           0           0
Num RLSW                                   I               52
RLSW                                       R   N=          52
  1.00000000E+00  1.00000000E+00  1.00000000E+00  1.00000000E+00  0.00000000E+00
  0.00000000E+00  0.00000000E+00  1.00000000E+00  0.00000000E+00  0.00000000E+00
  0.00000000E+00  0.00000000E+00  1.00000000E+00  0.00000000E+00  0.00000000E+00
  0.00000000E+00  0.00000000E+00  1.00000000E+00  0.00000000E+00  0.00000000E+00
  0.00000000E+00  0.00000000E+00  1.00000000E+00  0.00000000E+00  0.00000000E+00
  0.00000000E+00  0.00000000E+00  1.00000000E+00  0.00000000E+00  0.00000000E+00
  0.00000000E+00  0.00000000E+00  1.00000000E+00  0.00000000E+00  0.00000000E+00
  0.00000000E+00  0.00000000E+00  0.00000000E+00  1.00000000E+00  1.00000000E+00
  0.00000000E+00  1.00000000E+00  0.00000000E+00  0.00000000E+00  0.00000000E+00
  0.00000000E+00  0.00000000E+00  0.00000000E+00  0.00000000E+00  0.00000000E+00
  0.00000000E+00  0.00000000E+00
ECP-MxAtEC                                 I           250000
ECP-MaxLECP                                I               10
ECP-MaxAtL                                 I          2250000
ECP-MxTECP                                 I         11250000
ECP-LenNCZ                                 I                0
ECP-KFirst                                 I   N=          10
           0           0           0           0           0           0
           0           0           0           0
ECP-KLast                                  I   N=          10
           0           0           0           0           0           0
           0           0           0           0
ECP-LMax                                   I   N=           1
           0
ECP-LPSkip                                 I   N=           1
           1
ECP-RNFroz                                 R   N=           1
  0.00000000E+00
ECP-NLP                                    I                0
ECP-CLP1                                   R      0.000000000000000E+00
ECP-CLP2                                   R      0.000000000000000E+00
ECP-ZLP                                    R      0.000000000000000E+00
MxBond                                     I                1
NBond                                      I   N=           1
           0
IBond                                      I   N=           1
           0
RBond                                      R   N=           1
  0.00000000E+00
Virial Ratio                               R      2.001426292535992E+00
SCF Energy                                 R     -1.044198060134024E+03
Total Energy                               R     -1.044198060134024E+03
S**2                                       R      1.199999999999995E+01
S**2 after annihilation                    R      1.199999999999996E+01
RMS Density                                R      1.252040775554588E-09
Job Status                                 I                1
Nuclear derivative order                   I                0
External E-field                           R   N=          35
  0.00000000E+00  0.00000000E+00  0.00000000E+00  0.00000000E+00  0.00000000E+00
  0.00000000E+00  0.00000000E+00  0.00000000E+00  0.00000000E+00  0.00000000E+00
  0.00000000E+00  0.00000000E+00  0.00000000E+00  0.00000000E+00  0.00000000E+00
  0.00000000E+00  0.00000000E+00  0.00000000E+00  0.00000000E+00  0.00000000E+00
  0.00000000E+00  0.00000000E+00  0.00000000E+00  0.00000000E+00  0.00000000E+00
  0.00000000E+00  0.00000000E+00  0.00000000E+00  0.00000000E+00  0.00000000E+00
  0.00000000E+00  0.00000000E+00  0.00000000E+00  0.00000000E+00  0.00000000E+00
IOpCl                                      I                0
IROHF                                      I                1
Alpha Orbital Energies                     R   N=          45
 -2.14379569E+02 -2.41305727E+01 -2.05031770E+01 -2.05031770E+01 -2.05031770E+01
 -2.58916110E+00 -1.58288950E+00 -1.58288950E+00 -1.58288950E+00 -6.93120400E-02
 -4.36409935E-02 -4.36409935E-02 -4.36409935E-02 -4.36409935E-02 -4.36409935E-02
  4.56885490E-02  4.56885490E-02  4.56885490E-02  8.39831938E-02  1.09111885E-01
  1.09111885E-01  1.09111885E-01  1.09111885E-01  1.09111885E-01  4.96229359E-01
  4.96229359E-01  4.96229359E-01  4.96229359E-01  4.96229359E-01  1.27099245E+00
  1.27099245E+00  1.27099245E+00  1.89232169E+00  2.03441977E+00  2.03441977E+00
  2.03441977E+00  2.03441977E+00  2.03441977E+00  2.92403242E+00  2.92403242E+00
  2.92403242E+00  2.92403242E+00  2.92403242E+00  2.92403242E+00  2.92403242E+00
Alpha MO coefficients                      R   N=        2025
  9.97834006E-01  6.82823855E-03 -2.72045477E-03  1.81648803E-03 -5.38333475E-04
  2.53836241E-04  0.00000000E+00  0.00000000E+00  0.00000000E+00  0.00000000E+00
  0.00000000E+00  0.00000000E+00  0.00000000E+00  0.00000000E+00  0.00000000E+00
  0.00000000E+00  0.00000000E+00  0.00000000E+00 -3.85959581E-16  0.00000000E+00
  0.00000000E+00  2.59668740E-15  0.00000000E+00 -9.73267909E-16  0.00000000E+00
  0.00000000E+00 -2.67162223E-15  0.00000000E+00  2.12712764E-15  0.00000000E+00
  0.00000000E+00 -9.39033205E-16  0.00000000E+00 -7.77290859E-16  0.00000000E+00
  0.00000000E+00  5.15325190E-16  0.00000000E+00  0.00000000E+00  0.00000000E+00
  0.00000000E+00  0.00000000E+00  0.00000000E+00  0.00000000E+00  0.00000000E+00
 -3.10486175E-01  1.03510830E+00  4.75969926E-02 -1.92823909E-02  4.91591384E-03
 -2.17832517E-03  0.00000000E+00  0.00000000E+00  0.00000000E+00  0.00000000E+00
  0.00000000E+00  0.00000000E+00  0.00000000E+00  0.00000000E+00  0.00000000E+00
  0.00000000E+00  0.00000000E+00  0.00000000E+00 -1.00031815E-16  0.00000000E+00
  0.00000000E+00  3.76506402E-16  0.00000000E+00  3.90658907E-16  0.00000000E+00
  0.00000000E+00 -1.77674228E-15  0.00000000E+00 -3.89173882E-16  0.00000000E+00
  0.00000000E+00  2.55674036E-15  0.00000000E+00 -1.77571142E-15  0.00000000E+00
  0.00000000E+00 -1.89590028E-15  0.00000000E+00  0.00000000E+00  0.00000000E+00
  0.00000000E+00  0.00000000E+00  0.00000000E+00  0.00000000E+00  0.00000000E+00
  0.00000000E+00  0.00000000E+00  0.00000000E+00  0.00000000E+00  0.00000000E+00
  0.00000000E+00  0.00000000E+00  9.90505663E-01  0.00000000E+00  0.00000000E+00
  2.68382371E-02  0.00000000E+00  0.00000000E+00 -7.78147532E-03  0.00000000E+00
  0.00000000E+00  2.05499333E-03  0.00000000E+00  0.00000000E+00  0.00000000E+00
  0.00000000E+00  0.00000000E+00  0.00000000E+00  0.00000000E+00  0.00000000E+00
  0.00000000E+00  0.00000000E+00  0.00000000E+00  0.00000000E+00  0.00000000E+00
  0.00000000E+00  0.00000000E+00  0.00000000E+00  0.00000000E+00  0.00000000E+00
  0.00000000E+00  0.00000000E+00  0.00000000E+00  0.00000000E+00  0.00000000E+00
  1.03888137E-13  0.00000000E+00  0.00000000E+00  0.00000000E+00  1.35035590E-13
  0.00000000E+00  0.00000000E+00  0.00000000E+00  0.00000000E+00  0.00000000E+00
  0.00000000E+00  9.90505663E-01  0.00000000E+00  0.00000000E+00  2.68382371E-02
  0.00000000E+00  0.00000000E+00 -7.78147532E-03  0.00000000E+00  0.00000000E+00
  2.05499333E-03  0.00000000E+00  0.00000000E+00  0.00000000E+00  0.00000000E+00
  0.00000000E+00  0.00000000E+00  0.00000000E+00  0.00000000E+00  0.00000000E+00
  0.00000000E+00  0.00000000E+00  0.00000000E+00  0.00000000E+00  0.00000000E+00
  0.00000000E+00  0.00000000E+00  0.00000000E+00  0.00000000E+00  0.00000000E+00
  0.00000000E+00  0.00000000E+00  0.00000000E+00  0.00000000E+00  1.03904613E-13
  0.00000000E+00  0.00000000E+00  0.00000000E+00 -1.34877867E-13  0.00000000E+00
  0.00000000E+00  0.00000000E+00  0.00000000E+00  0.00000000E+00  0.00000000E+00
  0.00000000E+00  0.00000000E+00  0.00000000E+00  9.90505663E-01  0.00000000E+00
  0.00000000E+00  2.68382371E-02  0.00000000E+00  0.00000000E+00 -7.78147532E-03
  0.00000000E+00  0.00000000E+00  2.05499333E-03  0.00000000E+00  0.00000000E+00
  0.00000000E+00  0.00000000E+00  0.00000000E+00  0.00000000E+00  0.00000000E+00
  0.00000000E+00  0.00000000E+00  0.00000000E+00  0.00000000E+00  0.00000000E+00
  0.00000000E+00  0.00000000E+00  0.00000000E+00  0.00000000E+00  0.00000000E+00
  0.00000000E+00  0.00000000E+00  0.00000000E+00 -1.71355354E-13  0.00000000E+00
  0.00000000E+00  3.77718124E-16  0.00000000E+00  0.00000000E+00  0.00000000E+00
  1.13765961E-01 -4.48071045E-01  6.39078737E-01  4.61814786E-01  1.90828679E-02
 -6.28893833E-03  0.00000000E+00  0.00000000E+00  0.00000000E+00  0.00000000E+00
  0.00000000E+00  0.00000000E+00  0.00000000E+00  0.00000000E+00  0.00000000E+00
  0.00000000E+00  0.00000000E+00  0.00000000E+00 -8.20006939E-16  0.00000000E+00
  0.00000000E+00  4.26369130E-16  0.00000000E+00  5.20069633E-16  0.00000000E+00
  0.00000000E+00 -7.52179147E-16  0.00000000E+00 -7.91817255E-16  0.00000000E+00
  0.00000000E+00  5.70742147E-16  0.00000000E+00  4.42035302E-16  0.00000000E+00
  0.00000000E+00 -1.55376789E-15  0.00000000E+00  0.00000000E+00  0.00000000E+00
  0.00000000E+00  0.00000000E+00  0.00000000E+00  0.00000000E+00  0.00000000E+00
  0.00000000E+00  0.00000000E+00  0.00000000E+00  0.00000000E+00  0.00000000E+00
  0.00000000E+00 -3.66926258E-01  0.00000000E+00  0.00000000E+00  8.74684627E-01
  0.00000000E+00  0.00000000E+00  2.53617735E-01  0.00000000E+00  0.00000000E+00
  9.72173290E-03  0.00000000E+00  0.00000000E+00  0.00000000E+00  0.00000000E+00
  0.00000000E+00  0.00000000E+00  0.00000000E+00  0.00000000E+00  0.00000000E+00
  0.00000000E+00  0.00000000E+00  0.00000000E+00  0.00000000E+00  0.00000000E+00
  0.00000000E+00  0.00000000E+00  0.00000000E+00  0.00000000E+00  0.00000000E+00
  0.00000000E+00  0.00000000E+00  0.00000000E+00  0.00000000E+00  8.13827417E-12
  0.00000000E+00  0.00000000E+00  0.00000000E+00 -1.05079605E-11  0.00000000E+00
  0.00000000E+00  0.00000000E+00  0.00000000E+00  0.00000000E+00  0.00000000E+00
  0.00000000E+00  0.00000000E+00 -3.66926258E-01  0.00000000E+00  0.00000000E+00
  8.74684627E-01  0.00000000E+00  0.00000000E+00  2.53617735E-01  0.00000000E+00
  0.00000000E+00  9.72173290E-03  0.00000000E+00  0.00000000E+00  0.00000000E+00
  0.00000000E+00  0.00000000E+00  0.00000000E+00  0.00000000E+00  0.00000000E+00
  0.00000000E+00  0.00000000E+00  0.00000000E+00  0.00000000E+00  0.00000000E+00
  0.00000000E+00  0.00000000E+00  0.00000000E+00  0.00000000E+00  0.00000000E+00
  0.00000000E+00  0.00000000E+00  0.00000000E+00  0.00000000E+00  0.00000000E+00
  8.13796095E-12  0.00000000E+00  0.00000000E+00  0.00000000E+00  1.05075901E-11
  0.00000000E+00  0.00000000E+00  0.00000000E+00  0.00000000E+00  0.00000000E+00
  0.00000000E+00  0.00000000E+00  0.00000000E+00 -3.66926258E-01  0.00000000E+00
  0.00000000E+00  8.74684627E-01  0.00000000E+00  0.00000000E+00  2.53617735E-01
  0.00000000E+00  0.00000000E+00  9.72173290E-03  0.00000000E+00  0.00000000E+00
  0.00000000E+00  0.00000000E+00  0.00000000E+00  0.00000000E+00  0.00000000E+00
  0.00000000E+00  0.00000000E+00  0.00000000E+00  0.00000000E+00  0.00000000E+00
  0.00000000E+00  0.00000000E+00  0.00000000E+00  0.00000000E+00  0.00000000E+00
  0.00000000E+00  0.00000000E+00  0.00000000E+00 -1.32914620E-11  0.00000000E+00
  0.00000000E+00  2.20462587E-16  0.00000000E+00  0.00000000E+00  0.00000000E+00
 -3.00538574E-02  9.41897546E-02 -2.46469785E-01 -2.54847349E-01  7.87019386E-01
  3.57968102E-01  0.00000000E+00  0.00000000E+00  0.00000000E+00  0.00000000E+00
  0.00000000E+00  0.00000000E+00  0.00000000E+00  0.00000000E+00  0.00000000E+00
  0.00000000E+00  0.00000000E+00  0.00000000E+00 -2.15823629E-14  0.00000000E+00
  0.00000000E+00 -5.16158584E-15  0.00000000E+00 -1.47419610E-14  0.00000000E+00
  0.00000000E+00 -2.90712641E-15  0.00000000E+00 -2.97212448E-15  0.00000000E+00
  0.00000000E+00 -4.12871685E-15  0.00000000E+00 -4.31994082E-15  0.00000000E+00
  0.00000000E+00  1.82453215E-15  0.00000000E+00  0.00000000E+00  0.00000000E+00
  0.00000000E+00  0.00000000E+00  0.00000000E+00  0.00000000E+00  0.00000000E+00
  0.00000000E+00  0.00000000E+00  0.00000000E+00  0.00000000E+00  0.00000000E+00
  0.00000000E+00  0.00000000E+00  0.00000000E+00  0.00000000E+00  0.00000000E+00
  0.00000000E+00  0.00000000E+00  0.00000000E+00  0.00000000E+00  0.00000000E+00
  0.00000000E+00  0.00000000E+00  0.00000000E+00  0.00000000E+00  6.10103218E-01
  0.00000000E+00  0.00000000E+00  0.00000000E+00  0.00000000E+00  3.78321974E-01
  0.00000000E+00  0.00000000E+00  0.00000000E+00  0.00000000E+00  2.75251627E-01
  0.00000000E+00  0.00000000E+00  0.00000000E+00  0.00000000E+00  6.21356665E-02
  0.00000000E+00  0.00000000E+00  0.00000000E+00  0.00000000E+00  0.00000000E+00
  0.00000000E+00  0.00000000E+00  0.00000000E+00  0.00000000E+00  0.00000000E+00
  0.00000000E+00  0.00000000E+00  0.00000000E+00  0.00000000E+00  0.00000000E+00
  0.00000000E+00  0.00000000E+00  0.00000000E+00  0.00000000E+00  0.00000000E+00
  0.00000000E+00  0.00000000E+00  0.00000000E+00  0.00000000E+00  0.00000000E+00
  0.00000000E+00  0.00000000E+00  0.00000000E+00  0.00000000E+00  0.00000000E+00
  6.10103218E-01  0.00000000E+00  0.00000000E+00  0.00000000E+00  0.00000000E+00
  3.78321974E-01  0.00000000E+00  0.00000000E+00  0.00000000E+00  0.00000000E+00
  2.75251627E-01  0.00000000E+00  0.00000000E+00  0.00000000E+00  0.00000000E+00
  6.21356665E-02  0.00000000E+00  0.00000000E+00  0.00000000E+00  0.00000000E+00
  0.00000000E+00  0.00000000E+00  0.00000000E+00  0.00000000E+00  0.00000000E+00
  0.00000000E+00  0.00000000E+00  0.00000000E+00  0.00000000E+00  0.00000000E+00
  0.00000000E+00  0.00000000E+00  0.00000000E+00  0.00000000E+00  0.00000000E+00
  0.00000000E+00  0.00000000E+00  0.00000000E+00  0.00000000E+00  0.00000000E+00
  0.00000000E+00  0.00000000E+00  0.00000000E+00  0.00000000E+00  0.00000000E+00
  0.00000000E+00  0.00000000E+00  6.10103218E-01  0.00000000E+00  0.00000000E+00
  0.00000000E+00  0.00000000E+00  3.78321974E-01  0.00000000E+00  0.00000000E+00
  0.00000000E+00  0.00000000E+00  2.75251627E-01  0.00000000E+00  0.00000000E+00
  0.00000000E+00  0.00000000E+00  6.21356665E-02  0.00000000E+00  0.00000000E+00
  0.00000000E+00  0.00000000E+00  0.00000000E+00  0.00000000E+00  0.00000000E+00
 -5.45856879E-16 -1.45496290E-16 -7.84982063E-15  1.16902472E-14 -5.22371197E-14
  8.50585899E-14  0.00000000E+00  0.00000000E+00  0.00000000E+00  0.00000000E+00
  0.00000000E+00  0.00000000E+00  0.00000000E+00  0.00000000E+00  0.00000000E+00
  0.00000000E+00  0.00000000E+00  0.00000000E+00  6.09741219E-01  0.00000000E+00
  0.00000000E+00 -2.10138681E-02  0.00000000E+00  3.78097500E-01  0.00000000E+00
  0.00000000E+00 -1.30305952E-02  0.00000000E+00  2.75088309E-01  0.00000000E+00
  0.00000000E+00 -9.48052923E-03  0.00000000E+00  6.20987990E-02  0.00000000E+00
  0.00000000E+00 -2.14014721E-03  0.00000000E+00  0.00000000E+00  0.00000000E+00
  0.00000000E+00  0.00000000E+00  0.00000000E+00  0.00000000E+00  0.00000000E+00
 -5.65369265E-17  6.16301481E-16 -2.98445876E-15  2.17763498E-16  1.75066193E-15
  7.68950070E-15  0.00000000E+00  0.00000000E+00  0.00000000E+00  0.00000000E+00
  0.00000000E+00  0.00000000E+00  0.00000000E+00  0.00000000E+00  0.00000000E+00
  0.00000000E+00  0.00000000E+00  0.00000000E+00  2.10138681E-02  0.00000000E+00
  0.00000000E+00  6.09741219E-01  0.00000000E+00  1.30305952E-02  0.00000000E+00
  0.00000000E+00  3.78097500E-01  0.00000000E+00  9.48052923E-03  0.00000000E+00
  0.00000000E+00  2.75088309E-01  0.00000000E+00  2.14014721E-03  0.00000000E+00
  0.00000000E+00  6.20987990E-02  0.00000000E+00  0.00000000E+00  0.00000000E+00
  0.00000000E+00  0.00000000E+00  0.00000000E+00  0.00000000E+00  0.00000000E+00
  0.00000000E+00  0.00000000E+00  0.00000000E+00  0.00000000E+00  0.00000000E+00
  0.00000000E+00  9.82299208E-02  0.00000000E+00  0.00000000E+00 -2.78601962E-01
  0.00000000E+00  0.00000000E+00 -1.33926529E-01  0.00000000E+00  0.00000000E+00
  1.07774184E+00  0.00000000E+00  0.00000000E+00  0.00000000E+00  0.00000000E+00
  0.00000000E+00  0.00000000E+00  0.00000000E+00  0.00000000E+00  0.00000000E+00
  0.00000000E+00  0.00000000E+00  0.00000000E+00  0.00000000E+00  0.00000000E+00
  0.00000000E+00  0.00000000E+00  0.00000000E+00  0.00000000E+00  0.00000000E+00
  0.00000000E+00  0.00000000E+00  0.00000000E+00  0.00000000E+00  6.62431173E-14
  0.00000000E+00  0.00000000E+00  0.00000000E+00 -8.73376342E-14  0.00000000E+00
  0.00000000E+00  0.00000000E+00  0.00000000E+00  0.00000000E+00  0.00000000E+00
  0.00000000E+00  0.00000000E+00  9.82299208E-02  0.00000000E+00  0.00000000E+00
 -2.78601962E-01  0.00000000E+00  0.00000000E+00 -1.33926529E-01  0.00000000E+00
  0.00000000E+00  1.07774184E+00  0.00000000E+00  0.00000000E+00  0.00000000E+00
  0.00000000E+00  0.00000000E+00  0.00000000E+00  0.00000000E+00  0.00000000E+00
  0.00000000E+00  0.00000000E+00  0.00000000E+00  0.00000000E+00  0.00000000E+00
  0.00000000E+00  0.00000000E+00  0.00000000E+00  0.00000000E+00  0.00000000E+00
  0.00000000E+00  0.00000000E+00  0.00000000E+00  0.00000000E+00  0.00000000E+00
  6.68669189E-14  0.00000000E+00  0.00000000E+00  0.00000000E+00  8.69551051E-14
  0.00000000E+00  0.00000000E+00  0.00000000E+00  0.00000000E+00  0.00000000E+00
  0.00000000E+00  0.00000000E+00  0.00000000E+00  9.82299208E-02  0.00000000E+00
  0.00000000E+00 -2.78601962E-01  0.00000000E+00  0.00000000E+00 -1.33926529E-01
  0.00000000E+00  0.00000000E+00  1.07774184E+00  0.00000000E+00  0.00000000E+00
  0.00000000E+00  0.00000000E+00  0.00000000E+00  0.00000000E+00  0.00000000E+00
  0.00000000E+00  0.00000000E+00  0.00000000E+00  0.00000000E+00  0.00000000E+00
  0.00000000E+00  0.00000000E+00  0.00000000E+00  0.00000000E+00  0.00000000E+00
  0.00000000E+00  0.00000000E+00  0.00000000E+00 -1.11780924E-13  0.00000000E+00
  0.00000000E+00  2.30074302E-15  0.00000000E+00  0.00000000E+00  0.00000000E+00
 -2.24263318E-02  8.21255530E-02 -1.63729176E-01 -3.47677318E-01  2.05619308E+00
 -1.94889441E+00  0.00000000E+00  0.00000000E+00  0.00000000E+00  0.00000000E+00
  0.00000000E+00  0.00000000E+00  0.00000000E+00  0.00000000E+00  0.00000000E+00
  0.00000000E+00  0.00000000E+00  0.00000000E+00  9.52622790E-15  0.00000000E+00
  0.00000000E+00 -6.97511667E-15  0.00000000E+00  1.63637790E-14  0.00000000E+00
  0.00000000E+00 -4.60876634E-15  0.00000000E+00 -8.33932971E-15  0.00000000E+00
  0.00000000E+00  3.65882702E-15  0.00000000E+00  6.93817177E-14  0.00000000E+00
  0.00000000E+00  3.11302185E-14  0.00000000E+00  0.00000000E+00  0.00000000E+00
  0.00000000E+00  0.00000000E+00  0.00000000E+00  0.00000000E+00  0.00000000E+00
  0.00000000E+00  0.00000000E+00  0.00000000E+00  0.00000000E+00  0.00000000E+00
  0.00000000E+00  0.00000000E+00  0.00000000E+00  0.00000000E+00  0.00000000E+00
  0.00000000E+00  0.00000000E+00  0.00000000E+00  0.00000000E+00  0.00000000E+00
  0.00000000E+00  0.00000000E+00  0.00000000E+00  0.00000000E+00  0.00000000E+00
 -1.75428453E-01  0.00000000E+00  0.00000000E+00  0.00000000E+00  0.00000000E+00
 -7.59218435E-02  0.00000000E+00  0.00000000E+00  0.00000000E+00  0.00000000E+00
 -1.46145211E-01  0.00000000E+00  0.00000000E+00  0.00000000E+00  0.00000000E+00
  1.05516369E+00  0.00000000E+00  0.00000000E+00  0.00000000E+00  0.00000000E+00
  0.00000000E+00  0.00000000E+00  0.00000000E+00  0.00000000E+00  0.00000000E+00
  0.00000000E+00  0.00000000E+00  0.00000000E+00  0.00000000E+00  0.00000000E+00
  0.00000000E+00  0.00000000E+00  0.00000000E+00  0.00000000E+00  0.00000000E+00
  0.00000000E+00  0.00000000E+00  0.00000000E+00  0.00000000E+00  0.00000000E+00
  0.00000000E+00  0.00000000E+00  0.00000000E+00  0.00000000E+00  0.00000000E+00
  0.00000000E+00  0.00000000E+00 -1.75428453E-01  0.00000000E+00  0.00000000E+00
  0.00000000E+00  0.00000000E+00 -7.59218435E-02  0.00000000E+00  0.00000000E+00
  0.00000000E+00  0.00000000E+00 -1.46145211E-01  0.00000000E+00  0.00000000E+00
  0.00000000E+00  0.00000000E+00  1.05516369E+00  0.00000000E+00  0.00000000E+00
  0.00000000E+00  0.00000000E+00  0.00000000E+00  0.00000000E+00  0.00000000E+00
  0.00000000E+00  0.00000000E+00  0.00000000E+00  0.00000000E+00  0.00000000E+00
  0.00000000E+00  0.00000000E+00  0.00000000E+00  0.00000000E+00  0.00000000E+00
  0.00000000E+00  0.00000000E+00  0.00000000E+00  0.00000000E+00  0.00000000E+00
  0.00000000E+00  0.00000000E+00  0.00000000E+00  0.00000000E+00 -1.75428453E-01
  0.00000000E+00  0.00000000E+00  0.00000000E+00  0.00000000E+00 -7.59218435E-02
  0.00000000E+00  0.00000000E+00  0.00000000E+00  0.00000000E+00 -1.46145211E-01
  0.00000000E+00  0.00000000E+00  0.00000000E+00  0.00000000E+00  1.05516369E+00
  0.00000000E+00  0.00000000E+00  0.00000000E+00  0.00000000E+00  0.00000000E+00
  0.00000000E+00  0.00000000E+00  0.00000000E+00  0.00000000E+00  0.00000000E+00
  1.03579619E-15 -4.03684851E-15  1.13493354E-14  1.97947154E-14 -1.24842147E-13
  1.17466708E-13  0.00000000E+00  0.00000000E+00  0.00000000E+00  0.00000000E+00
  0.00000000E+00  0.00000000E+00  0.00000000E+00  0.00000000E+00  0.00000000E+00
  0.00000000E+00  0.00000000E+00  0.00000000E+00 -1.75391925E-01  0.00000000E+00
  0.00000000E+00 -3.57977711E-03  0.00000000E+00 -7.59060349E-02  0.00000000E+00
  0.00000000E+00 -1.54925426E-03  0.00000000E+00 -1.46114780E-01  0.00000000E+00
  0.00000000E+00 -2.98222592E-03  0.00000000E+00  1.05494398E+00  0.00000000E+00
  0.00000000E+00  2.15315746E-02  0.00000000E+00  0.00000000E+00  0.00000000E+00
  0.00000000E+00  0.00000000E+00  0.00000000E+00  0.00000000E+00  0.00000000E+00
  1.05923449E-15 -2.58297702E-15  9.90919501E-15  7.08061673E-15 -6.46803644E-14
  6.06322652E-14  0.00000000E+00  0.00000000E+00  0.00000000E+00  0.00000000E+00
  0.00000000E+00  0.00000000E+00  0.00000000E+00  0.00000000E+00  0.00000000E+00
  0.00000000E+00  0.00000000E+00  0.00000000E+00  3.57977711E-03  0.00000000E+00
  0.00000000E+00 -1.75391925E-01  0.00000000E+00  1.54925426E-03  0.00000000E+00
  0.00000000E+00 -7.59060349E-02  0.00000000E+00  2.98222592E-03  0.00000000E+00
  0.00000000E+00 -1.46114780E-01  0.00000000E+00 -2.15315746E-02  0.00000000E+00
  0.00000000E+00  1.05494398E+00  0.00000000E+00  0.00000000E+00  0.00000000E+00
  0.00000000E+00  0.00000000E+00  0.00000000E+00  0.00000000E+00  0.00000000E+00
  0.00000000E+00  0.00000000E+00  0.00000000E+00  0.00000000E+00  0.00000000E+00